
9 atoms
2 atom types
   0.0000000000    5.0277819633 xlo xhi
   0.0000000000    4.3541869049 ylo yhi
   0.0000000000    5.5189180374 zlo zhi
  -2.5138909817    0.0000000000    0.0000000000 xy xz yz

Masses

1 28.085
2 15.999

Atoms # atomic

     1      1    1.3140360178    2.2759771459    0.0000000000
     2      1    2.3997100734    0.0000000000    3.6792788038
     3      1   -1.1998550367    2.0782098853    1.8396393991
     4      2    0.8312584412    3.6542948234    4.8051397060
     5      2   -1.0664503136    3.2469301592    2.9655004669
     6      2    0.2351920231    1.8071486966    1.1258610678
     7      2    2.7490829294    2.5470383390    0.7137782486
     8      2    3.3451491589    0.6998920162    2.5534175705
     9      2    1.4474406681    1.1072566151    4.3930568041
