ITEM: TIMESTEP
0
ITEM: NUMBER OF ATOMS
216
ITEM: BOX BOUNDS xy xz yz pp pp pp
0.0000000000000000e+00 1.5567287410700001e+01 0.0000000000000000e+00
0.0000000000000000e+00 1.5567287410700001e+01 0.0000000000000000e+00
0.0000000000000000e+00 1.4488641334500000e+01 0.0000000000000000e+00
ITEM: ATOMS id type c_peratom_energy
1 1 -107.805
2 1 -107.822
3 1 -107.774
4 1 -107.725
5 1 -107.738
6 1 -107.612
7 1 -107.813
8 1 -107.799
9 1 -107.648
10 1 -107.788
11 1 -107.78
12 1 -107.777
13 1 -107.643
14 1 -107.694
15 1 -107.755
16 1 -107.788
17 1 -107.815
18 1 -107.773
19 1 -107.551
20 1 -107.815
21 1 -107.793
22 1 -107.728
23 1 -107.761
24 1 -107.659
25 1 -107.789
26 1 -107.707
27 1 -107.754
28 1 -107.72
29 1 -107.688
30 1 -107.699
31 1 -107.776
32 1 -107.631
33 1 -107.767
34 1 -107.778
35 1 -107.677
36 1 -107.711
37 1 -107.716
38 1 -107.795
39 1 -107.728
40 1 -107.766
41 1 -107.791
42 1 -107.736
43 1 -107.799
44 1 -107.682
45 1 -107.759
46 1 -107.812
47 1 -107.586
48 1 -107.73
49 1 -107.794
50 1 -107.703
51 1 -107.752
52 1 -107.813
53 1 -107.801
54 1 -107.742
55 1 -107.711
56 1 -107.761
57 1 -107.837
58 1 -107.732
59 1 -107.767
60 1 -107.72
61 1 -107.735
62 1 -107.779
63 1 -107.809
64 1 -107.736
65 1 -107.788
66 1 -107.773
67 1 -107.772
68 1 -107.715
69 1 -107.685
70 1 -107.787
71 1 -107.625
72 2 -436.123
73 2 -436.179
74 2 -436.308
75 2 -436.385
76 2 -436.109
77 2 -434.813
78 2 -436.298
79 2 -436.17
80 2 -436.267
81 2 -436.146
82 2 -436.342
83 2 -436.151
84 2 -436.301
85 2 -436.374
86 2 -436.015
87 2 -436.161
88 2 -436.065
89 2 -436.182
90 2 -436.117
91 2 -436.306
92 2 -436.131
93 2 -436.151
94 2 -436.187
95 2 -436.405
96 2 -436.148
97 2 -436.299
98 2 -436.296
99 2 -436.235
100 2 -436.134
101 2 -436.329
102 2 -436.337
103 2 -436.076
104 2 -436.233
105 2 -436.279
106 2 -436.301
107 2 -436.309
108 2 -436.316
109 2 -436.108
110 2 -436.133
111 2 -436.234
112 2 -436.095
113 2 -434.952
114 2 -436.318
115 2 -436.212
116 2 -436.297
117 2 -436.371
118 2 -436.142
119 2 -436.176
120 2 -436.3
121 2 -436.122
122 2 -436.022
123 2 -436.186
124 2 -436.337
125 2 -436.296
126 2 -436.176
127 2 -436.161
128 2 -436.14
129 2 -436.165
130 2 -436.123
131 2 -436.338
132 2 -435.681
133 2 -436.106
134 2 -436.35
135 2 -436.019
136 2 -436.07
137 2 -436.334
138 2 -436.112
139 2 -436.068
140 2 -436.233
141 2 -436.073
142 2 -436.172
143 2 -436.189
144 2 -436.127
145 2 -436.348
146 2 -436.221
147 2 -436.198
148 2 -436.206
149 2 -436.373
150 2 -436.253
151 2 -436.329
152 2 -436.284
153 2 -436.127
154 2 -436.153
155 2 -436.267
156 2 -436.236
157 2 -436.224
158 2 -436.144
159 2 -436.322
160 2 -436.114
161 2 -436.277
162 2 -436.138
163 2 -436.014
164 2 -436.182
165 2 -435.99
166 2 -436.241
167 2 -434.84
168 2 -436.185
169 2 -436.238
170 2 -436.009
171 2 -436.178
172 2 -436.212
173 2 -436.505
174 2 -436.345
175 2 -436.369
176 2 -436.217
177 2 -436.262
178 2 -435.906
179 2 -436.142
180 2 -436.205
181 2 -436.373
182 2 -436.2
183 2 -436.075
184 2 -436.059
185 2 -436.305
186 2 -435.814
187 2 -436.174
188 2 -436.048
189 2 -436.083
190 2 -436.078
191 2 -436.141
192 2 -436.315
193 2 -436.075
194 2 -436.321
195 2 -436.147
196 2 -436.058
197 2 -436.167
198 2 -436.228
199 2 -436.403
200 2 -435.867
201 2 -436.106
202 2 -436.325
203 2 -434.814
204 2 -436.208
205 2 -436.156
206 2 -436.343
207 2 -436.348
208 2 -436.188
209 2 -435.993
210 2 -436.007
211 2 -436.244
212 2 -436.194
213 2 -436.247
214 2 -436.118
215 2 -435.93
216 3 -1849.12
ITEM: TIMESTEP
10
ITEM: NUMBER OF ATOMS
216
ITEM: BOX BOUNDS xy xz yz pp pp pp
0.0000000000000000e+00 1.5567287410700001e+01 0.0000000000000000e+00
0.0000000000000000e+00 1.5567287410700001e+01 0.0000000000000000e+00
0.0000000000000000e+00 1.4488641334500000e+01 0.0000000000000000e+00
ITEM: ATOMS id type c_peratom_energy
1 1 -107.843
2 1 -107.816
3 1 -107.819
4 1 -107.767
5 1 -107.771
6 1 -107.745
7 1 -107.85
8 1 -107.813
9 1 -107.792
10 1 -107.844
11 1 -107.803
12 1 -107.809
13 1 -107.806
14 1 -107.699
15 1 -107.675
16 1 -107.807
17 1 -107.787
18 1 -107.806
19 1 -107.643
20 1 -107.858
21 1 -107.825
22 1 -107.809
23 1 -107.763
24 1 -107.781
25 1 -107.833
26 1 -107.772
27 1 -107.799
28 1 -107.743
29 1 -107.751
30 1 -107.761
31 1 -107.837
32 1 -107.742
33 1 -107.76
34 1 -107.779
35 1 -107.721
36 1 -107.752
37 1 -107.756
38 1 -107.801
39 1 -107.766
40 1 -107.806
41 1 -107.785
42 1 -107.817
43 1 -107.854
44 1 -107.77
45 1 -107.823
46 1 -107.807
47 1 -107.639
48 1 -107.782
49 1 -107.823
50 1 -107.753
51 1 -107.77
52 1 -107.87
53 1 -107.84
54 1 -107.746
55 1 -107.777
56 1 -107.873
57 1 -107.861
58 1 -107.808
59 1 -107.796
60 1 -107.807
61 1 -107.786
62 1 -107.784
63 1 -107.886
64 1 -107.77
65 1 -107.747
66 1 -107.88
67 1 -107.781
68 1 -107.712
69 1 -107.718
70 1 -107.817
71 1 -107.858
72 2 -436.194
73 2 -436.212
74 2 -436.189
75 2 -436.244
76 2 -436.225
77 2 -434.957
78 2 -436.229
79 2 -436.157
80 2 -436.201
81 2 -436.248
82 2 -436.197
83 2 -436.231
84 2 -436.238
85 2 -436.217
86 2 -436.207
87 2 -436.25
88 2 -436.203
89 2 -436.222
90 2 -436.247
91 2 -436.215
92 2 -436.228
93 2 -436.224
94 2 -436.227
95 2 -436.214
96 2 -436.222
97 2 -436.264
98 2 -436.15
99 2 -436.203
100 2 -436.267
101 2 -436.279
102 2 -436.218
103 2 -436.212
104 2 -436.204
105 2 -436.232
106 2 -436.214
107 2 -436.208
108 2 -436.203
109 2 -436.226
110 2 -436.197
111 2 -436.231
112 2 -436.222
113 2 -434.951
114 2 -436.231
115 2 -436.162
116 2 -436.238
117 2 -436.231
118 2 -436.196
119 2 -436.222
120 2 -436.201
121 2 -436.251
122 2 -436.218
123 2 -436.274
124 2 -436.187
125 2 -436.238
126 2 -436.229
127 2 -436.214
128 2 -436.169
129 2 -436.173
130 2 -436.204
131 2 -436.328
132 2 -436.214
133 2 -436.201
134 2 -436.26
135 2 -436.201
136 2 -436.241
137 2 -436.273
138 2 -436.214
139 2 -436.169
140 2 -436.237
141 2 -436.23
142 2 -436.203
143 2 -436.219
144 2 -436.274
145 2 -436.273
146 2 -436.22
147 2 -436.207
148 2 -436.215
149 2 -436.215
150 2 -436.225
151 2 -436.276
152 2 -436.208
153 2 -436.213
154 2 -436.25
155 2 -436.204
156 2 -436.157
157 2 -436.188
158 2 -436.2
159 2 -436.213
160 2 -436.243
161 2 -436.213
162 2 -436.201
163 2 -436.217
164 2 -436.209
165 2 -436.232
166 2 -436.215
167 2 -434.847
168 2 -436.171
169 2 -436.211
170 2 -436.218
171 2 -436.208
172 2 -436.187
173 2 -436.366
174 2 -436.217
175 2 -436.214
176 2 -436.254
177 2 -436.217
178 2 -436.209
179 2 -436.164
180 2 -436.251
181 2 -436.271
182 2 -436.196
183 2 -436.212
184 2 -436.207
185 2 -436.328
186 2 -436.225
187 2 -436.198
188 2 -436.215
189 2 -436.19
190 2 -436.232
191 2 -436.219
192 2 -436.265
193 2 -436.188
194 2 -436.238
195 2 -436.228
196 2 -436.188
197 2 -436.203
198 2 -436.192
199 2 -436.37
200 2 -436.211
201 2 -436.188
202 2 -436.216
203 2 -434.863
204 2 -436.185
205 2 -436.215
206 2 -436.222
207 2 -436.214
208 2 -436.217
209 2 -436.217
210 2 -436.219
211 2 -436.197
212 2 -436.264
213 2 -436.233
214 2 -436.227
215 2 -436.22
216 3 -1849.08
